<?xml version="1.0"?> 
<VTKFile type="UnstructuredGrid" version="2.2"> 
<UnstructuredGrid> 

<!--This is a test!-->
<!--This is a second line-->

<Piece NumberOfPoints="25" NumberOfCells="16">
	<Points>
		<DataArray type="Float64" Name="nodes" NumberOfComponents=" 3" format="ascii"> 
			 0.000000E+00	 0.000000E+00	 0.000000E+00
			 1.000000E+00	 0.000000E+00	 0.000000E+00
			 2.000000E+00	 0.000000E+00	 0.000000E+00
			 3.000000E+00	 0.000000E+00	 0.000000E+00
			 4.000000E+00	 0.000000E+00	 0.000000E+00
			 0.000000E+00	 1.000000E+00	 0.000000E+00
			 1.000000E+00	 1.000000E+00	 0.000000E+00
			 2.000000E+00	 1.000000E+00	 0.000000E+00
			 3.000000E+00	 1.000000E+00	 0.000000E+00
			 4.000000E+00	 1.000000E+00	 0.000000E+00
			 0.000000E+00	 2.000000E+00	 0.000000E+00
			 1.000000E+00	 2.000000E+00	 0.000000E+00
			 2.000000E+00	 2.000000E+00	 0.000000E+00
			 3.000000E+00	 2.000000E+00	 0.000000E+00
			 4.000000E+00	 2.000000E+00	 0.000000E+00
			 0.000000E+00	 3.000000E+00	 0.000000E+00
			 1.000000E+00	 3.000000E+00	 0.000000E+00
			 2.000000E+00	 3.000000E+00	 0.000000E+00
			 3.000000E+00	 3.000000E+00	 0.000000E+00
			 4.000000E+00	 3.000000E+00	 0.000000E+00
			 0.000000E+00	 4.000000E+00	 0.000000E+00
			 1.000000E+00	 4.000000E+00	 0.000000E+00
			 2.000000E+00	 4.000000E+00	 0.000000E+00
			 3.000000E+00	 4.000000E+00	 0.000000E+00
			 4.000000E+00	 4.000000E+00	 0.000000E+00
		</DataArray> 
	</Points> 
	<Cells> 
		<DataArray type="Int32" Name="connectivity" NumberOfComponents=" 1" format="ascii"> 
			0	 1	 6	 5
			1	 2	 7	 6
			2	 3	 8	 7
			3	 4	 9	 8
			5	 6	 11	 10
			6	 7	 12	 11
			7	 8	 13	 12
			8	 9	 14	 13
			10	 11	 16	 15
			11	 12	 17	 16
			12	 13	 18	 17
			13	 14	 19	 18
			15	 16	 21	 20
			16	 17	 22	 21
			17	 18	 23	 22
			18	 19	 24	 23
		</DataArray> 
		<DataArray type="Int32" Name="offsets" NumberOfComponents=" 1" format="ascii"> 
			4 
			8 
			12 
			16 
			20 
			24 
			28 
			32 
			36 
			40 
			44 
			48 
			52 
			56 
			60 
			64 
		</DataArray> 
		<DataArray type="UInt8" Name="types" NumberOfComponents=" 1" format="ascii"> 
			9 
			9 
			9 
			9 
			9 
			9 
			9 
			9 
			9 
			9 
			9 
			9 
			9 
			9 
			9 
			9 
		</DataArray> 
	 </Cells> 
	<PointData> 
		<DataArray type="Float64" Name="Displacement" NumberOfComponents="3" format="ascii"> 
			0.000000E+00 	0.000000E+00 	0.000000E+00
			1.000000E+00 	0.000000E+00 	0.000000E+00
			2.000000E+00 	0.000000E+00 	0.000000E+00
			3.000000E+00 	0.000000E+00 	0.000000E+00
			4.000000E+00 	0.000000E+00 	0.000000E+00
			0.000000E+00 	0.000000E+00 	0.000000E+00
			1.000000E+00 	1.000000E+00 	0.000000E+00
			2.000000E+00 	2.000000E+00 	0.000000E+00
			3.000000E+00 	3.000000E+00 	0.000000E+00
			4.000000E+00 	4.000000E+00 	0.000000E+00
			0.000000E+00 	0.000000E+00 	0.000000E+00
			1.000000E+00 	2.000000E+00 	0.000000E+00
			2.000000E+00 	4.000000E+00 	0.000000E+00
			3.000000E+00 	6.000000E+00 	0.000000E+00
			4.000000E+00 	8.000000E+00 	0.000000E+00
			0.000000E+00 	0.000000E+00 	0.000000E+00
			1.000000E+00 	3.000000E+00 	0.000000E+00
			2.000000E+00 	6.000000E+00 	0.000000E+00
			3.000000E+00 	9.000000E+00 	0.000000E+00
			4.000000E+00 	1.200000E+01 	0.000000E+00
			0.000000E+00 	0.000000E+00 	0.000000E+00
			1.000000E+00 	4.000000E+00 	0.000000E+00
			2.000000E+00 	8.000000E+00 	0.000000E+00
			3.000000E+00 	1.200000E+01 	0.000000E+00
			4.000000E+00 	1.600000E+01 	0.000000E+00
		</DataArray> 
		<DataArray type="Float64" Name="My function" NumberOfComponents="4" format="ascii"
ComponentName0="F1"
ComponentName1="Other field"
ComponentName2="field name"
ComponentName3="blabla">
			0.000000E+00 	1.000000E+00 	0.000000E+00 	2.000000E+00
			8.414710E-01 	1.000000E+00 	0.000000E+00 	2.000000E+00
			9.092974E-01 	1.000000E+00 	0.000000E+00 	2.000000E+00
			1.411200E-01 	1.000000E+00 	0.000000E+00 	2.000000E+00
			-7.568025E-01 	1.000000E+00 	0.000000E+00 	2.000000E+00
			0.000000E+00 	5.403023E-01 	0.000000E+00 	2.000000E+00
			8.414710E-01 	5.403023E-01 	1.000000E+00 	2.000000E+00
			9.092974E-01 	5.403023E-01 	2.000000E+00 	2.000000E+00
			1.411200E-01 	5.403023E-01 	3.000000E+00 	2.000000E+00
			-7.568025E-01 	5.403023E-01 	4.000000E+00 	2.000000E+00
			0.000000E+00 	-4.161468E-01 	0.000000E+00 	2.000000E+00
			8.414710E-01 	-4.161468E-01 	2.000000E+00 	2.000000E+00
			9.092974E-01 	-4.161468E-01 	4.000000E+00 	2.000000E+00
			1.411200E-01 	-4.161468E-01 	6.000000E+00 	2.000000E+00
			-7.568025E-01 	-4.161468E-01 	8.000000E+00 	2.000000E+00
			0.000000E+00 	-9.899925E-01 	0.000000E+00 	2.000000E+00
			8.414710E-01 	-9.899925E-01 	3.000000E+00 	2.000000E+00
			9.092974E-01 	-9.899925E-01 	6.000000E+00 	2.000000E+00
			1.411200E-01 	-9.899925E-01 	9.000000E+00 	2.000000E+00
			-7.568025E-01 	-9.899925E-01 	1.200000E+01 	2.000000E+00
			0.000000E+00 	-6.536436E-01 	0.000000E+00 	2.000000E+00
			8.414710E-01 	-6.536436E-01 	4.000000E+00 	2.000000E+00
			9.092974E-01 	-6.536436E-01 	8.000000E+00 	2.000000E+00
			1.411200E-01 	-6.536436E-01 	1.200000E+01 	2.000000E+00
			-7.568025E-01 	-6.536436E-01 	1.600000E+01 	2.000000E+00
		</DataArray> 
	</PointData> 
	<CellData> 
		<DataArray type="Float64" Name="Element IDs" NumberOfComponents="1" format="ascii"> 
			1.000000E+00
			2.000000E+00
			3.000000E+00
			4.000000E+00
			5.000000E+00
			6.000000E+00
			7.000000E+00
			8.000000E+00
			9.000000E+00
			1.000000E+01
			1.100000E+01
			1.200000E+01
			1.300000E+01
			1.400000E+01
			1.500000E+01
			1.600000E+01
		</DataArray> 
	</CellData> 
</Piece> 
</UnstructuredGrid> 
</VTKFile> 
